% Model:              Real life PV cells 2D moisture ingress for different materials_YB.mph
% Version:            COMSOL 6.2.0.290
% Date:               Apr 22 2024, 12:28
% Dimension:          1
% Nodes:              87601
% Expressions:        1
% Description:        Point graph
% Time (h)                c*(18/10^3)[kg/mol]/ST_EVA_YB(TMit(ampr1.T_amb,T_GHI(t),ampr1.v_amb))
0                         -1.0265784659464965E-90
2                         2.9579364189133285E-86
4                         -2.0642359883150206E-88
6                         -1.1078725151251905E-89
8                         4.559033389266247E-91
10                        -2.128730126779937E-91
12                        2.528065899282845E-92
14                        -2.764313607509878E-94
16                        -1.6945799192256678E-93
18                        4.917263543429341E-94
20                        9.391139952735835E-95
22                        9.908831434256001E-95
24                        2.166463297547081E-94
26                        3.4315179339088714E-94
28                        5.499516064312648E-94
30                        8.838770882206923E-94
32                        1.4188297022939148E-93
34                        2.2918535716597114E-93
36                        3.769723834313673E-93
38                        6.538006519821015E-93
40                        1.1608473165912071E-92
42                        1.9708918021540513E-92
44                        3.236696799355682E-92
46                        5.252359371379216E-92
48                        8.512421911737447E-92
50                        1.4072143693533445E-91
52                        2.5155824200483335E-91
54                        5.431585465135543E-91
56                        1.5297354386960256E-90
58                        9.041041754057678E-90
60                        8.880808855593472E-89
62                        8.894400094720954E-88
64                        5.80273425479954E-87
66                        2.9617438150137246E-86
68                        1.295680174215684E-85
70                        5.352829580881055E-85
72                        2.114196747975088E-84
74                        8.0569080156042335E-84
76                        2.9779622450224793E-83
78                        1.0751181789982673E-82
80                        3.7407987531906985E-82
82                        1.4358945440131177E-81
84                        6.413040517907873E-81
86                        3.0500685003653815E-80
88                        1.303965867506718E-79
90                        4.994381674959813E-79
92                        6.959484979800978E-78
94                        6.769425230418E-77
96                        5.14118012411194E-76
98                        1.6497337913741983E-75
100                       4.672872733424236E-75
102                       1.2905079687225979E-74
104                       3.479833918077322E-74
106                       1.0299518391695239E-73
108                       3.455362964348471E-73
110                       6.301247506903101E-72
112                       4.43905544101926E-71
114                       2.3513349871719292E-70
116                       1.0639925049527412E-69
118                       4.403038678042747E-69
120                       1.6976049689217586E-68
122                       4.318089366271592E-68
124                       1.004609837382182E-67
126                       3.3333972040194824E-67
128                       1.1282369017319318E-66
130                       5.301013487811245E-66
132                       3.1601239351033175E-65
134                       1.7655856006681245E-64
136                       6.763043955186838E-64
138                       1.690011935548998E-63
140                       4.97727500662735E-63
142                       1.4419332475763447E-62
144                       4.01257261266885E-62
146                       8.691324731534874E-62
148                       1.7609004346435554E-61
150                       4.434274877413514E-61
152                       1.1370618649376472E-60
154                       3.4626247410760265E-60
156                       1.3764395494931994E-59
158                       5.832247587062442E-59
160                       1.810307833443532E-58
162                       3.9962677512653454E-58
164                       9.539172964387015E-58
166                       2.2529394540988926E-57
168                       5.173025060627828E-57
170                       1.1609520269764826E-56
172                       2.5539807006108444E-56
174                       5.52948162485665E-56
176                       1.1852018876491201E-55
178                       2.815993107274127E-55
180                       7.651322383867438E-55
182                       2.3193349493443716E-54
184                       6.005026825073005E-54
186                       1.2987019463776507E-53
188                       2.507131402576318E-53
190                       5.15577298947468E-53
192                       1.0368487512866996E-52
194                       2.046065078520477E-52
196                       3.889196838863536E-52
198                       7.448792146917419E-52
200                       1.4142539085551352E-51
202                       2.3918322372898765E-51
204                       4.042654980878642E-51
206                       7.325731887735131E-51
208                       1.4294609575289878E-50
210                       2.7430776106314737E-50
212                       5.286989646530558E-50
214                       9.897067528703007E-50
216                       1.8068026240822777E-49
218                       3.2870928643849756E-49
220                       5.679089565883712E-49
222                       9.16777576701301E-49
224                       1.4585312937425444E-48
226                       2.3190864586666568E-48
228                       3.790314648862158E-48
230                       7.533053133715748E-48
232                       1.5668483158635976E-47
234                       2.955934293235797E-47
236                       5.191728046720444E-47
238                       8.984669269894067E-47
240                       1.5223851677146127E-46
242                       2.570565092458165E-46
244                       4.319778353461667E-46
246                       7.18734560309624E-46
248                       1.1881023830847831E-45
250                       1.8766583792772102E-45
252                       2.895749518024011E-45
254                       4.887174875208284E-45
256                       8.805693431691813E-45
258                       1.5415613647258446E-44
260                       2.4795655886200137E-44
262                       4.074326009906492E-44
264                       6.52853881972319E-44
266                       1.044726066705445E-43
268                       1.6391685823740532E-43
270                       2.5741428422712952E-43
272                       4.020904971163231E-43
274                       5.906547333435173E-43
276                       8.760217266929368E-43
278                       1.4897260770229275E-42
280                       2.6370759336672512E-42
282                       4.3554096582971566E-42
284                       6.872619673774551E-42
286                       1.0658032732518869E-41
288                       1.6219205883121349E-41
290                       2.460413705663015E-41
292                       3.6758684977141435E-41
294                       5.494298472603292E-41
296                       8.187514212882554E-41
298                       1.2237657218100125E-40
300                       1.892141903731229E-40
302                       3.149051216311087E-40
304                       5.345324603559814E-40
306                       8.611198807312315E-40
308                       1.2680144518722785E-39
310                       1.860706277393284E-39
312                       2.6973958800026906E-39
314                       3.9021529463231444E-39
316                       5.6175913685812386E-39
318                       8.031861690190916E-39
320                       1.1421297242783263E-38
322                       1.564422036296136E-38
324                       2.0829018089940744E-38
326                       3.4124897944677064E-38
328                       5.441404499704021E-38
330                       8.200879861804598E-38
332                       1.175705061669655E-37
334                       1.6695128359368565E-37
336                       2.3433698199474563E-37
338                       3.2594555935492188E-37
340                       4.5124530063796665E-37
342                       6.20275107754344E-37
344                       8.528573102789731E-37
346                       1.136166039124369E-36
348                       1.4858574926918237E-36
350                       2.1221138291531204E-36
352                       3.099111960954341E-36
354                       4.504288941671834E-36
356                       6.2622714557797E-36
358                       8.605557380326712E-36
360                       1.1706249808919409E-35
362                       1.579415837491593E-35
364                       2.1271454582117834E-35
366                       2.848016232951749E-35
368                       3.799311313461408E-35
370                       4.930002547168706E-35
372                       6.242978006183384E-35
374                       8.62278546728597E-35
376                       1.2201083279119732E-34
378                       1.7248074061642072E-34
380                       2.3295969952247697E-34
382                       3.1122957347252883E-34
384                       4.120516462476823E-34
386                       5.415181216025298E-34
388                       7.104636300458411E-34
390                       9.270781836271634E-34
392                       1.2049441582232998E-33
394                       1.536974740645522E-33
396                       1.8219752598085233E-33
398                       2.4946037446992793E-33
400                       3.449250144879139E-33
402                       4.9707738990641866E-33
404                       6.49157811431431E-33
406                       8.384330913037356E-33
408                       1.0818620262153868E-32
410                       1.393408425974152E-32
412                       1.7795499314208903E-32
414                       2.2699019886970023E-32
416                       2.880922344006001E-32
418                       3.507948451783931E-32
420                       4.2512431745433126E-32
422                       5.583458057344243E-32
424                       7.538063684466644E-32
426                       1.0391055607217329E-31
428                       1.3245526746517975E-31
430                       1.6888287886174045E-31
432                       2.141514918906852E-31
434                       2.6985970354892996E-31
436                       3.3903084243484965E-31
438                       4.235489806151089E-31
440                       5.28566964849455E-31
442                       6.440497407701812E-31
444                       7.786719032248048E-31
446                       9.332040019734778E-31
448                       1.284881202147652E-30
450                       1.702716194654933E-30
452                       2.1349818383719372E-30
454                       2.6768771003080758E-30
456                       3.32956048897952E-30
458                       4.131062045091437E-30
460                       5.091958464199452E-30
462                       6.264577830398562E-30
464                       7.667116753060444E-30
466                       9.059702574906454E-30
468                       1.040192189908736E-29
470                       1.366682782100164E-29
472                       1.8761804870354474E-29
474                       2.5375718353294613E-29
476                       3.145404191443855E-29
478                       3.855216808783119E-29
480                       4.718503754994938E-29
482                       5.759097463479244E-29
484                       6.989170315707252E-29
486                       8.461298365785136E-29
488                       1.020522836754959E-28
490                       1.2016562468827721E-28
492                       1.3913757363327381E-28
494                       1.6812713498648019E-28
496                       2.076645167447344E-28
498                       2.5887995581246793E-28
500                       3.134747132025828E-28
502                       3.761019629880733E-28
504                       4.551829827900264E-28
506                       5.485432181948925E-28
508                       6.573717031253139E-28
510                       7.857829548346439E-28
512                       9.358252956771063E-28
514                       1.0873992742290203E-27
516                       1.2463896367551441E-27
518                       1.4824203398874153E-27
520                       1.8132481975887812E-27
522                       2.2414156762922597E-27
524                       2.6853243495649798E-27
526                       3.187619839798861E-27
528                       3.811864343276536E-27
530                       4.539504690837233E-27
532                       5.378072798830908E-27
534                       6.354710638308347E-27
536                       7.481506178133458E-27
538                       8.57965683240749E-27
540                       9.674119170539024E-27
542                       1.1375853750653769E-26
544                       1.3932435431265306E-26
546                       1.7152434807560978E-26
548                       2.0540214083378525E-26
550                       2.4383001785577198E-26
552                       2.879584926231987E-26
554                       3.39072160732239E-26
556                       3.9742397980909914E-26
558                       4.645508781165459E-26
560                       5.4107680536334E-26
562                       6.097737809972744E-26
564                       6.766683787242416E-26
566                       8.158856411496642E-26
568                       9.881503988752946E-26
570                       1.272411009273691E-25
572                       1.504101854429098E-25
574                       1.764156541549743E-25
576                       2.0609501774422176E-25
578                       2.39962121347056E-25
580                       2.7878205794179566E-25
582                       3.22590788443216E-25
584                       3.7208154510784333E-25
586                       4.211905746113771E-25
588                       4.512565198476791E-25
590                       5.264469286155367E-25
592                       6.426672447577128E-25
594                       7.939071131997696E-25
596                       9.308718678520957E-25
598                       1.0818508518470575E-24
600                       1.2523480047038707E-24
602                       1.4440292035977322E-24
604                       1.6620961300192937E-24
606                       1.9023896139821913E-24
608                       2.1619810699440405E-24
610                       2.36068787893756E-24
612                       2.5058666828224985E-24
614                       3.0033018159288262E-24
616                       3.772195903427765E-24
618                       4.699648073663669E-24
620                       5.460266390941583E-24
622                       6.289048765376566E-24
624                       7.223330697025387E-24
626                       8.258907983476018E-24
628                       9.421364361966949E-24
630                       1.070028001173164E-23
632                       1.2130219733346131E-23
634                       1.3522125380971698E-23
636                       1.492325498283986E-23
638                       1.706403619719599E-23
640                       1.994947597074777E-23
642                       2.3475436357029473E-23
644                       2.6990817079959966E-23
646                       3.082534024559862E-23
648                       3.510205723975343E-23
650                       3.982729029326187E-23
652                       4.5087571882029975E-23
654                       5.0824667602567254E-23
656                       5.726447286030621E-23
658                       6.181915366497995E-23
660                       6.644308428861907E-23
662                       7.605027270306998E-23
664                       9.453172231916054E-23
666                       1.1418938879632588E-22
668                       1.3047678974142746E-22
670                       1.479007370464003E-22
672                       1.673290818176645E-22
674                       1.886175244223529E-22
676                       2.1188773613924E-22
678                       2.3721452777871865E-22
680                       2.648236252907392E-22
682                       2.830284857873113E-22
684                       2.9661082182758973E-22
686                       3.3486973367599354E-22
688                       4.0448786446155743E-22
690                       4.956102409291628E-22
692                       5.61904681599224E-22
694                       6.317294671173868E-22
696                       7.099355979869529E-22
698                       7.948720929373982E-22
700                       8.86879732593427E-22
702                       9.83631147305514E-22
704                       1.0864691899953413E-21
706                       1.1512601132449134E-21
708                       1.2019184471301772E-21
710                       1.317374591130818E-21
712                       1.5649815885058087E-21
714                       1.944029223916782E-21
716                       2.1911688614640837E-21
718                       2.4500404773580136E-21
720                       2.7348490591996884E-21
722                       3.042966513734839E-21
724                       3.3767745109942637E-21
726                       3.733410044211098E-21
728                       4.1183564188660454E-21
730                       4.3524982744437376E-21
732                       4.529703982317793E-21
734                       5.051393389140135E-21
736                       6.023013429663527E-21
738                       7.2094299068356E-21
740                       8.092332454005582E-21
742                       8.991368267628161E-21
744                       9.986269001823463E-21
746                       1.1051977379449401E-20
748                       1.2194483331391562E-20
750                       1.3378378039712216E-20
752                       1.461712881081171E-20
754                       1.5560523479891853E-20
756                       1.6276094352521388E-20
758                       1.7824265795835477E-20
760                       2.0185560773623554E-20
762                       2.314202680989449E-20
764                       2.5809843676670773E-20
766                       2.855348362817232E-20
768                       3.1561498226182496E-20
770                       3.4764041855576224E-20
772                       3.8190495892189753E-20
774                       4.1772779136707883E-20
776                       4.5477719267862637E-20
778                       4.7399415064707215E-20
780                       4.8438911354618054E-20
782                       5.2547403444090535E-20
784                       6.179467777646745E-20
786                       7.32884002945665E-20
788                       8.143705752442307E-20
790                       8.961805399061229E-20
792                       9.859679784888517E-20
794                       1.0810764736009142E-19
796                       1.1817834304362437E-19
798                       1.2873894837950054E-19
800                       1.3987131437823654E-19
802                       1.4573593609132161E-19
804                       1.4841026647842988E-19
806                       1.6180530030573144E-19
808                       1.8688299582253006E-19
810                       2.182819645114184E-19
812                       2.414081704441574E-19
814                       2.6434044102836E-19
816                       2.8954855103393323E-19
818                       3.1609609526305835E-19
820                       3.441320502237461E-19
822                       3.733453379081283E-19
824                       4.037401986956093E-19
826                       4.155076233085299E-19
828                       4.199892805006821E-19
830                       4.603906400361576E-19
832                       5.241365697422617E-19
834                       6.150289769017084E-19
836                       6.776562686843187E-19
838                       7.393326607076847E-19
840                       8.066791328226522E-19
842                       8.772205532881008E-19
844                       9.51197628944929E-19
846                       1.0276940327097975E-18
848                       1.107758125756782E-18
850                       1.1477077895007751E-18
852                       1.1698998892288917E-18
854                       1.2638287932548512E-18
856                       1.4375727097947169E-18
858                       1.6697043821295456E-18
860                       1.832160366651239E-18
862                       1.9902356346896584E-18
864                       2.163177597802809E-18
866                       2.3434124198414832E-18
868                       2.5317022680350003E-18
870                       2.7255894232575278E-18
872                       2.9251599305239137E-18
874                       2.9931365412362145E-18
876                       2.9424676444763396E-18
878                       3.248263515145671E-18
880                       3.70317140588016E-18
882                       4.272419676852366E-18
884                       4.673005823915615E-18
886                       5.0603639811262505E-18
888                       5.481111971093433E-18
890                       5.916463127939548E-18
892                       6.3707711118806566E-18
894                       6.835318244580225E-18
896                       7.318475688276846E-18
898                       7.49929881979982E-18
900                       7.52580727920697E-18
902                       8.04639658167232E-18
904                       9.173159204611036E-18
906                       1.059584020128043E-17
908                       1.1544857837180567E-17
910                       1.2444985154965096E-17
912                       1.3436143112510973E-17
914                       1.445923505774126E-17
916                       1.5517784684703986E-17
918                       1.6595534755312715E-17
920                       1.7691382483536348E-17
922                       1.8353790034778197E-17
924                       1.8643575911871222E-17
926                       1.816641283532771E-17
928                       2.0894340599978402E-17
930                       2.463603395055491E-17
932                       2.6799152267689564E-17
934                       2.881787994177393E-17
936                       3.1022628404123996E-17
938                       3.3289571796701455E-17
940                       3.562260913811726E-17
942                       3.798574122777348E-17
944                       4.038464962321762E-17
946                       4.166061697573623E-17
948                       4.252590065843936E-17
950                       4.491132686367408E-17
952                       4.878982223950223E-17
954                       5.402318626547136E-17
956                       5.85946749289488E-17
958                       6.286072099336701E-17
960                       6.749306201250306E-17
962                       7.223394911296231E-17
964                       7.709086557836669E-17
966                       8.198555030184115E-17
968                       8.693234903466842E-17
970                       8.927012975896901E-17
972                       9.074357608429924E-17
974                       9.573751704729015E-17
976                       1.0368409870501533E-16
978                       1.1460935433076706E-16
980                       1.239939979163092E-16
982                       1.3266727573669826E-16
984                       1.4209199658113281E-16
986                       1.5169857683416073E-16
988                       1.614964768142224E-16
990                       1.7132156132968667E-16
992                       1.8125946163916807E-16
994                       1.764400260530133E-16
996                       1.7559409266228142E-16
998                       1.8176492510161546E-16
1000                      2.1811916854907585E-16
1002                      2.484091032616204E-16
1004                      2.6798327294307055E-16
1006                      2.859585006308645E-16
1008                      3.0552330605332216E-16
1010                      3.253836359525716E-16
1012                      3.455040776372156E-16
1014                      3.655846258914205E-16
1016                      3.8578098901101514E-16
1018                      3.930181423943106E-16
1020                      3.9645501127765396E-16
1022                      4.1417807078530606E-16
1024                      4.486158398982704E-16
1026                      4.95160419609138E-16
1028                      5.329301931769149E-16
1030                      5.673521819348097E-16
1032                      6.04870999446494E-16
1034                      6.42812266744453E-16
1036                      6.810898118367545E-16
1038                      7.191044679739958E-16
1040                      7.57205736531E-16
1042                      7.707100629307039E-16
1044                      7.776178697388573E-16
1046                      8.13752717057677E-16
1048                      8.720619178097518E-16
1050                      9.56127592615674E-16
1052                      1.02749162136722E-15
1054                      1.0914795715700446E-15
1056                      1.16134256145108E-15
1058                      1.2317334637856009E-15
1060                      1.3025689102480175E-15
1062                      1.3725274203546168E-15
1064                      1.442468514310036E-15
1066                      1.418741047867625E-15
1068                      1.3957735788111497E-15
1070                      1.4626334707154417E-15
1072                      1.6255582633091276E-15
1074                      1.8453814571805328E-15
1076                      1.978546519813707E-15
1078                      2.096291500289257E-15
1080                      2.225972852051389E-15
1082                      2.3561399901394127E-15
1084                      2.4867430794085804E-15
1086                      2.613767953302779E-15
1088                      2.7379735936854993E-15
1090                      2.7412623989915548E-15
1092                      2.7898144026220173E-15
1094                      2.623786135744564E-15
1096                      2.891424610099412E-15
1098                      3.44172023539697E-15
1100                      3.703718421828932E-15
1102                      3.917933243531073E-15
1104                      4.148313660119333E-15
1106                      4.383350844032072E-15
1108                      4.619086747916321E-15
1110                      4.848081723400984E-15
1112                      5.071649633356477E-15
1114                      4.763988868012154E-15
1116                      4.468090042845734E-15
1118                      4.673631577108988E-15
1120                      5.388481527217347E-15
1122                      6.681436308623608E-15
1124                      7.177935991839889E-15
1126                      7.5810263500859E-15
1128                      8.012764317775603E-15
1130                      8.452236597753369E-15
1132                      8.89097417044446E-15
1134                      9.317952869748455E-15
1136                      9.730908918349303E-15
1138                      9.199836374117907E-15
1140                      8.696534902591753E-15
1142                      9.173930542706553E-15
1144                      1.0449593953143675E-14
1146                      1.2494750544957363E-14
1148                      1.339700544528576E-14
1150                      1.41291598034871E-14
1152                      1.490944137659316E-14
1154                      1.570135739264904E-14
1156                      1.6491124869486362E-14
1158                      1.7255387245890974E-14
1160                      1.7986280317052505E-14
1162                      1.7441806052742892E-14
1164                      1.6893426584352476E-14
1166                      1.754247701469842E-14
1168                      1.953637493360693E-14
1170                      2.228881653237277E-14
1172                      2.3795300044434765E-14
1174                      2.5057715478306726E-14
1176                      2.640155211399453E-14
1178                      2.7762425944842478E-14
1180                      2.9117092384617414E-14
1182                      3.042256227398518E-14
1184                      3.165622789007167E-14
1186                      3.036767274387231E-14
1188                      2.955236414896775E-14
1190                      3.095742096936888E-14
1192                      3.1229464574246965E-14
1194                      3.891159953248778E-14
1196                      4.18576114018638E-14
1198                      4.4030718678594085E-14
1200                      4.632747610281036E-14
1202                      4.86432049583307E-14
1204                      5.094967780705076E-14
1206                      5.314947787380995E-14
1208                      5.511371703827319E-14
1210                      5.3626785486838275E-14
1212                      4.930342867163287E-14
1214                      5.0195843152693634E-14
1216                      5.6797565286565915E-14
1218                      6.811671157557437E-14
1220                      7.307092533620437E-14
1222                      7.677757474350304E-14
1224                      8.067384119673472E-14