% Model:              Real life PV cells 2D moisture ingress for different materials_YB.mph
% Version:            COMSOL 6.2.0.290
% Date:               Apr 22 2024, 22:49
% Dimension:          1
% Nodes:              87601
% Expressions:        1
% Description:        Point graph
% Time (h)                c*(18/10^3)[kg/mol]/ST_EVA_YB(TMit(ampr1.T_amb,T_GHI(t),ampr1.v_amb))
0                         -2.018830989137961E-90
2                         2.642847664190763E-91
4                         -1.0983781895572847E-94
6                         -1.2565732713471001E-95
8                         8.326124183950771E-92
10                        2.6860482289351985E-78
12                        6.008269646269903E-63
14                        3.0375115703989386E-59
16                        1.6370347542298187E-57
18                        1.6853065027781872E-56
20                        8.429487695256863E-56
22                        2.8035145137682004E-52
24                        7.387906715246317E-51
26                        9.882518434406325E-50
28                        4.174667130837187E-49
30                        1.3829653483476456E-48
32                        4.0814986742248043E-48
34                        2.0657611666062512E-47
36                        8.521721014920059E-46
38                        8.886908139545215E-44
40                        1.7491362210318722E-42
42                        9.649680846026495E-42
44                        2.963757474164956E-41
46                        9.086637122990527E-41
48                        5.680739376214143E-40
50                        2.737807243713237E-39
52                        1.1144567056019561E-38
54                        4.0570363258795357E-38
56                        1.0463717509146901E-37
58                        2.873279371734743E-37
60                        6.299147033384919E-36
62                        1.142159040533947E-34
64                        7.488180216959394E-34
66                        2.7377028399242697E-33
68                        6.51011293064039E-33
70                        1.7489107950166684E-32
72                        4.5376702106436653E-32
74                        1.0970953816736876E-31
76                        2.500924225338546E-31
78                        5.555773540100474E-31
80                        1.041266604224113E-30
82                        2.3922112125508663E-30
84                        1.1571575113037756E-29
86                        7.930881042450104E-29
88                        3.4923576087755157E-28
90                        1.0871466485659299E-27
92                        2.1783694606187347E-27
94                        4.231709023227798E-27
96                        8.046347499385813E-27
98                        1.4801279888203166E-26
100                       2.627799642606543E-26
102                       4.5654767962606303E-26
104                       7.151581586855513E-26
106                       1.1216663065377608E-25
108                       3.0270645527162093E-25
110                       1.1679631927522152E-24
112                       3.549110492284928E-24
114                       7.973949400740987E-24
116                       1.3215886434532243E-23
118                       2.1621827844070698E-23
120                       3.476105635732851E-23
122                       5.447284645273447E-23
124                       8.333006626200646E-23
126                       1.2574151843962378E-22
128                       1.7669753467256055E-22
130                       2.352521489651026E-22
132                       4.828462271319868E-22
134                       1.225840643121882E-21
136                       2.858757028914823E-21
138                       5.6159351394427984E-21
140                       8.827062770248423E-21
142                       1.2682836727670563E-20
144                       1.8224448042220283E-20
146                       2.5724808724805716E-20
148                       3.5683234479377867E-20
150                       4.8346723525557797E-20
152                       6.215868360354481E-20
154                       7.45369906594288E-20
156                       1.3204102763558423E-19
158                       2.7460018438514417E-19
160                       5.31369879286245E-19
162                       9.443739376711405E-19
164                       1.3940735200785396E-18
166                       1.8645324600566993E-18
168                       2.479804277600105E-18
170                       3.2607607140823062E-18
172                       4.2320453955279814E-18
174                       5.438948971919434E-18
176                       6.62632711028356E-18
178                       7.453204887862917E-18
180                       1.1268967480889272E-17
182                       2.070479662421706E-17
184                       3.9304910253913257E-17
186                       6.454163413013319E-17
188                       8.686998333904844E-17
190                       1.0974216662823404E-16
192                       1.3837932985653925E-16
194                       1.7273074924142989E-16
196                       2.1340694765168263E-16
198                       2.6028152581593134E-16
200                       3.0456043809918476E-16
202                       3.24747631019563E-16
204                       4.0059872377474787E-16
206                       6.150776359406703E-16
208                       1.1544645447842073E-15
210                       1.807130683428535E-15
212                       2.3224597659578865E-15
214                       2.8224779277946214E-15
216                       3.421417201777252E-15
218                       4.1137872076371185E-15
220                       4.906269146173942E-15
222                       5.814170916604147E-15
224                       6.584056425526531E-15
226                       6.674671532493868E-15
228                       8.245477172167062E-15
230                       1.1838914837365444E-14
232                       1.8276571267356485E-14
234                       2.7210845843085113E-14
236                       3.4239942594801456E-14
238                       4.0331548040809853E-14
240                       4.746644092533097E-14
242                       5.548242583405643E-14
244                       6.442360147819439E-14
246                       7.417078655976849E-14
248                       8.170577371529894E-14
250                       7.642016902516347E-14
252                       8.772455881826293E-14
254                       1.2877970689640683E-13
256                       1.7540286445974334E-13
258                       2.5875372080959103E-13
260                       3.1826380690745685E-13
262                       3.659989964810653E-13
264                       4.2132505155683924E-13
266                       4.821321023658497E-13
268                       5.48346892796786E-13
270                       6.184162652097827E-13
272                       6.749172639554603E-13
274                       6.93214668597135E-13
276                       6.878279285385254E-13
278                       8.178653658065426E-13
280                       1.1635883509621172E-12
282                       1.6913060809747152E-12
284                       2.1282037690148304E-12
286                       2.4040867931161927E-12
288                       2.7185049118004772E-12
290                       3.058593023268666E-12
292                       3.4258481535741E-12
294                       3.8192646655885174E-12
296                       4.096300394705989E-12
298                       3.963279819576965E-12
300                       4.213135451241965E-12
302                       5.092431304443935E-12
304                       6.465152958907999E-12
306                       8.350869990070899E-12
308                       9.678145109821226E-12
310                       1.079104121294468E-11
312                       1.2038552541742777E-11
314                       1.3372657418025536E-11
316                       1.4798729969257587E-11
318                       1.6299811729050663E-11
320                       1.7292661806400637E-11
322                       1.685605421430153E-11
324                       1.6134380457798023E-11
326                       1.904391263663713E-11
328                       2.4969961282614016E-11
330                       3.263331980669566E-11
332                       3.989967132879137E-11
334                       4.395284926442605E-11
336                       4.8510782376471767E-11
338                       5.329049361643701E-11
340                       5.83602259173368E-11
342                       6.364251619215728E-11
344                       6.646634864800868E-11
346                       5.810893821786264E-11
348                       6.049194758169195E-11
350                       7.181541030614438E-11
352                       9.765886830252427E-11
354                       1.3430917800906857E-10
356                       1.6000101977310956E-10
358                       1.7442147101808753E-10
360                       1.9046041984644156E-10
362                       2.0708321752791428E-10
364                       2.2463382012762436E-10
366                       2.4283434169000095E-10
368                       2.524766906318367E-10
370                       2.2478073495231398E-10
372                       2.1220800862162928E-10
374                       2.5414168459613354E-10
376                       3.118541700849898E-10
378                       4.334502596993986E-10
380                       5.247056423651807E-10
382                       5.67088018906412E-10
384                       6.140011696839778E-10
386                       6.62255217415641E-10
388                       7.128571991912521E-10
390                       7.646757258377629E-10
392                       7.926057107029845E-10
394                       7.698861504426282E-10
396                       7.787763721823286E-10
398                       7.927898130147754E-10
400                       8.712226393490051E-10
402                       1.1069953571815758E-9
404                       1.3256119122078257E-9
406                       1.4240807011422176E-9
408                       1.531509947216835E-9
410                       1.6421823666791952E-9
412                       1.7577276111450316E-9
414                       1.874833906365401E-9
416                       1.925182027037523E-9
418                       1.7513008439947999E-9
420                       1.661805252712807E-9
422                       1.9567447501388657E-9
424                       2.37359689168164E-9
426                       2.8097895179598144E-9
428                       3.1149883201949518E-9
430                       3.3272864516861528E-9
432                       3.559534667050541E-9
434                       3.797198686172869E-9
436                       4.044476590724746E-9
438                       4.293507627136141E-9
440                       4.4099213781424505E-9
442                       4.105111675306765E-9
444                       3.832115643214311E-9
446                       4.079953561572691E-9
448                       4.460778355697356E-9
450                       6.012546529019366E-9
452                       7.12086999749474E-9
454                       7.566445475269308E-9
456                       8.05464190753022E-9
458                       8.552127638983683E-9
460                       9.06856254733537E-9
462                       9.586911073474869E-9
464                       9.760818300944623E-9
466                       9.03588751919808E-9
468                       7.829089502668752E-9
470                       7.881296480962871E-9
472                       1.0666221547674937E-8
474                       1.3217666272076625E-8
476                       1.546471273431627E-8
478                       1.6357806013707482E-8
480                       1.7335162320922233E-8
482                       1.832832292961043E-8
484                       1.935699834305235E-8
486                       2.038258573670849E-8
488                       2.060292718975526E-8
490                       1.738686228693342E-8
492                       1.5830492458869407E-8
494                       1.7349560134168658E-8
496                       2.1315173593200114E-8
498                       2.8293701463315232E-8
500                       3.289631295317629E-8
502                       3.464635079409417E-8
504                       3.656183370305913E-8
506                       3.850380008829155E-8
508                       4.051048208261424E-8
510                       4.248774939845928E-8
512                       4.283592940152227E-8
514                       3.7035322802822424E-8
516                       3.533448999746022E-8
518                       3.491982249704744E-8
520                       4.085315747463024E-8
522                       5.4810135049659185E-8
524                       6.365115826673063E-8
526                       6.679378561660614E-8
528                       7.02461095781735E-8
530                       7.373616022012742E-8
532                       7.733962642401288E-8
534                       8.087873056767451E-8
536                       8.170109910406296E-8
538                       7.671525241585987E-8
540                       6.875516675116466E-8
542                       6.828065789398122E-8
544                       7.288380345338453E-8
546                       9.76313012097093E-8
548                       1.1531996072616863E-7
550                       1.2063707358065318E-7
552                       1.2649088829041375E-7
554                       1.3240099847600693E-7
556                       1.3849778624121298E-7
558                       1.4445620629047932E-7
560                       1.4534532586197572E-7
562                       1.2455460566199687E-7
564                       1.139526583572688E-7
566                       1.0825439183140397E-7
568                       1.3692564938186068E-7
570                       1.7500888484969393E-7
572                       2.0523281596890935E-7
574                       2.1406489404237461E-7
576                       2.2382671617278208E-7
578                       2.3366916292813194E-7
580                       2.438197345277477E-7
582                       2.536594399081303E-7
584                       2.5354459531483264E-7
586                       2.129682615376997E-7
588                       1.904319297684192E-7
590                       2.0254921732498424E-7
592                       2.3754858843321581E-7
594                       2.985923599916154E-7
596                       3.472880754397698E-7
598                       3.613001991363295E-7
600                       3.768588651561934E-7
602                       3.925348120541572E-7
604                       4.087087867878523E-7
606                       4.2434727501165223E-7
608                       4.237925784985948E-7
610                       3.589981132481163E-7
612                       3.291199566481215E-7
614                       3.2659370608352434E-7
616                       3.7108430892827815E-7
618                       4.849435381088957E-7
620                       5.624368797525789E-7
622                       5.838023360684496E-7
624                       6.075998469221693E-7
626                       6.315870427274634E-7
628                       6.563389165332876E-7
630                       6.801777837252148E-7
632                       6.828692844492357E-7
634                       6.093548019408232E-7
636                       5.171193723270918E-7
638                       5.200247484265369E-7
640                       6.023595893320495E-7
642                       7.85216686268523E-7
644                       8.743596823085653E-7
646                       9.058027194447325E-7
648                       9.409340226131571E-7
650                       9.763394339303902E-7
652                       1.0129088428225424E-6
654                       1.0478991845753515E-6
656                       1.0437105530970798E-6
658                       8.634690545581616E-7
660                       8.639095442765683E-7
662                       7.614050962414156E-7
664                       9.040522222578105E-7
666                       1.1628944031053788E-6
668                       1.3290287008167441E-6
670                       1.3741441304759642E-6
672                       1.4248620581583034E-6
674                       1.4760313546211536E-6
676                       1.52891535966909E-6
678                       1.5793357443132784E-6
680                       1.5744263388118645E-6
682                       1.3421870711299953E-6
684                       1.1755465893725964E-6
686                       1.2000649917245023E-6
688                       1.441581475890295E-6
690                       1.7724773068215282E-6
692                       1.9499384413799817E-6
694                       2.0127490242327297E-6
696                       2.083790709967707E-6
698                       2.1555258322486123E-6
700                       2.2297652943633076E-6
702                       2.3002380064017113E-6
704                       2.297232981682524E-6
706                       2.0256630375660166E-6
708                       1.9903847078755662E-6
710                       1.994740407238459E-6
712                       2.0921123799158133E-6
714                       2.4295366995115537E-6
716                       2.6883000161584267E-6
718                       2.7710490476370827E-6
720                       2.865170076284317E-6
722                       2.9603098863213917E-6
724                       3.058917283736122E-6
726                       3.151995384748474E-6
728                       3.1376981096341755E-6
730                       2.6208799243046453E-6
732                       2.1900863817902572E-6
734                       2.346097878644705E-6
736                       2.7455741009882703E-6
738                       3.493443788423683E-6
740                       3.8399166591119005E-6
742                       3.9523017858046706E-6
744                       4.080790728746262E-6
746                       4.210880992765919E-6
748                       4.3459134624177966E-6
750                       4.4727008473114885E-6
752                       4.4278608979805875E-6
754                       3.6104887604958246E-6
756                       3.0716673592962435E-6
758                       3.3280730917599714E-6
760                       4.031061520183588E-6
762                       4.969322490049518E-6
764                       5.3606644341174425E-6
766                       5.51007991027227E-6
768                       5.682048939673962E-6
770                       5.856281728165921E-6
772                       6.037372569481264E-6
774                       6.2061612356819565E-6
776                       6.151575215534416E-6
778                       5.560887009997671E-6
780                       4.618517237297121E-6
782                       4.39711276535833E-6
784                       5.1786713029942426E-6
786                       6.523019274492461E-6
788                       7.316003363777463E-6
790                       7.5109921133408E-6
792                       7.73637512908058E-6
794                       7.965235801741547E-6
796                       8.203564499491016E-6
798                       8.42478712034584E-6
800                       8.369173221593898E-6
802                       7.096520210914732E-6
804                       6.354088471072242E-6
806                       6.410713186638106E-6
808                       7.272254722007766E-6
810                       8.877767599685818E-6
812                       9.693100869914101E-6
814                       9.94006128419261E-6
816                       1.0227738104826545E-5
818                       1.0520591840953024E-5
820                       1.0826142222737462E-5
822                       1.1109047474277766E-5
824                       1.1030398743988817E-5
826                       9.883473971041412E-6
828                       8.629175604511914E-6
830                       8.606250727642982E-6
832                       1.0115499960744106E-5
834                       1.183317804390708E-5
836                       1.2441568569480922E-5
838                       1.2745958257877561E-5
840                       1.3103006212510849E-5
842                       1.3467644963303703E-5
844                       1.3849004981906503E-5
846                       1.4200729758792252E-5
848                       1.4025405192603798E-5
850                       1.1742403839607146E-5
852                       1.0113761083242522E-5
854                       1.0021256542996596E-5
856                       1.169716518794717E-5
858                       1.4410663305228092E-5
860                       1.6273594106971797E-5
862                       1.6655231119045054E-5
864                       1.7105826776849274E-5
866                       1.756666512951982E-5
868                       1.8049509566413695E-5
870                       1.8491574625566947E-5
872                       1.8287495638779652E-5
874                       1.4986018266105274E-5
876                       1.3011759845316605E-5
878                       1.3422054672155412E-5
880                       1.598273723940126E-5
882                       1.9644709801984123E-5
884                       2.084529837840415E-5
886                       2.131424646243431E-5
888                       2.1871636610001718E-5
890                       2.2444478423699336E-5
892                       2.3046306124416678E-5
894                       2.3596576236363634E-5
896                       2.3379431928908314E-5
898                       2.0964682427791242E-5
900                       1.9446263206145643E-5
902                       1.924966857939109E-5
904                       2.0821559506894113E-5
906                       2.4306660570765633E-5
908                       2.5607521206642977E-5
910                       2.6163847717478072E-5
912                       2.682806248751833E-5
914                       2.7512957310112157E-5
916                       2.8233937727341858E-5
918                       2.8888748334291993E-5
920                       2.864213472127419E-5
922                       2.363066672911968E-5
924                       2.1710509873949147E-5
926                       1.9712558928378576E-5
928                       2.77892552131806E-5
930                       3.0498624704815304E-5
932                       3.20041645720849E-5
934                       3.267185292197577E-5
936                       3.347700553704246E-5
938                       3.431004363809826E-5
940                       3.518942255134694E-5
942                       3.598696767284715E-5
944                       3.5628628433129284E-5
946                       3.2853341686274684E-5
948                       2.9993156096352856E-5
950                       2.6653119734830202E-5
952                       2.8363527624060727E-5
954                       3.467975352094748E-5
956                       3.901724697619608E-5
958                       3.980264508388873E-5
960                       4.075644479129809E-5
962                       4.174673296705652E-5
964                       4.279476441032645E-5
966                       4.374141077581936E-5
968                       4.3155088908644555E-5
970                       3.524842829140772E-5
972                       3.0154442867473457E-5
974                       3.143062229744017E-5
976                       3.7699692317771755E-5
978                       4.550376867492641E-5
980                       4.8092653747679214E-5
982                       4.902442487385245E-5
984                       5.016365003929266E-5
986                       5.1351621880380135E-5
988                       5.2612034442401605E-5
990                       5.374715729506624E-5
992                       5.300087139825083E-5
994                       4.476370004405651E-5
996                       3.7996255672366105E-5
998                       3.683553409719321E-5
1000                      4.3399787401195775E-5
1002                      5.323584148893487E-5
1004                      5.8814894655868746E-5
1006                      5.991311917156599E-5
1008                      6.126679570568718E-5
1010                      6.26822295913999E-5
1012                      6.418806717651758E-5
1014                      6.553742933189414E-5
1016                      6.446429351286791E-5
1018                      5.2072875941536256E-5
1020                      4.598357008316578E-5
1022                      4.489679375193637E-5
1024                      5.056963224540816E-5
1026                      6.433034247300459E-5
1028                      7.175259571408447E-5
1030                      7.304234413425524E-5
1032                      7.464393478901568E-5
1034                      7.632710329981545E-5
1036                      7.812333588369305E-5
1038                      7.972205973837514E-5
1040                      7.835458953257592E-5
1042                      6.33101065859688E-5
1044                      5.8618269059474604E-5
1046                      5.5346136930913584E-5
1048                      6.263475993340662E-5
1050                      7.695890961913027E-5
1052                      8.623623021806856E-5
1054                      8.773065210287692E-5
1056                      8.960422980816759E-5
1058                      9.157983832917238E-5
1060                      9.369388631142802E-5
1062                      9.557000193746833E-5
1064                      9.419915227798907E-5
1066                      7.888627283271145E-5
1068                      7.32701093627819E-5
1070                      6.209764321907377E-5
1072                      7.358748232633498E-5
1074                      9.077177398689691E-5
1076                      1.0281253676601777E-4
1078                      1.0453141906698003E-4
1080                      1.0670340003422006E-4
1082                      1.0900658763190893E-4
1084                      1.1147928377949936E-4
1086                      1.1366251119851505E-4
1088                      1.1125133043860355E-4
1090                      8.903651013714113E-5
1092                      7.48156320714532E-5
1094                      7.841198033953109E-5
1096                      8.939296959077242E-5
1098                      1.1098142473378054E-4
1100                      1.227070507668049E-4
1102                      1.2468319123254686E-4
1104                      1.2725776374523278E-4
1106                      1.2995998813136107E-4
1108                      1.3285633554369379E-4
1110                      1.3541278381646324E-4
1112                      1.323163796672208E-4
1114                      1.0538213423484287E-4
1116                      9.240894726494346E-5
1118                      9.194453977014182E-5
1120                      1.011010059238211E-4
1122                      1.2714243469372046E-4
1124                      1.4581580895579117E-4
1126                      1.4811043469914895E-4
1128                      1.5110261350090957E-4
1130                      1.5425624253720413E-4
1132                      1.5762997220410054E-4
1134                      1.6059125582417103E-4
1136                      1.5685412041721372E-4
1138                      1.2446010369081254E-4
1140                      1.0703669545374481E-4
1142                      1.0743729053528993E-4
1144                      1.2012935190829172E-4
1146                      1.5410290073420267E-4
1148                      1.7228420298490783E-4
1150                      1.7491834484873673E-4
1152                      1.78369617793116E-4
1154                      1.8203581399541224E-4
1156                      1.8595182749331075E-4
1158                      1.893854016088054E-4
1160                      1.8526666006970146E-4
1162                      1.5047379096369396E-4
1164                      1.23559441450483E-4
1166                      1.2266594953923684E-4
1168                      1.5544669811248498E-4
1170                      1.8494979913834475E-4
1172                      2.014770947880986E-4
1174                      2.044834848496647E-4
1176                      2.0844249901828772E-4
1178                      2.1266946462442858E-4
1180                      2.171768455339262E-4
1182                      2.211270775234328E-4
1184                      2.1610589990886717E-4
1186                      1.7773812102544245E-4
1188                      1.4617524792773841E-4
1190                      1.5039473225927804E-4
1192                      1.6501041749600125E-4
1194                      2.0528623857386195E-4
1196                      2.3440563002528707E-4
1198                      2.378229959153757E-4
1200                      2.4233237296198502E-4
1202                      2.4718289532245445E-4
1204                      2.523447882819345E-4
1206                      2.568622409824749E-4
1208                      2.50644247580402E-4
1210                      2.0391950730232566E-4
1212                      1.663349722330036E-4
1214                      1.7061891060852862E-4
1216                      1.9725123699406065E-4
1218                      2.3721156282340805E-4
1220                      2.7119443637382503E-4
1222                      2.750609213479328E-4
1224                      2.80177391340963E-4
1226                      2.857166072004022E-4
1228                      2.915957891594993E-4
1230                      2.967287586334008E-4
1232                      2.9047032489149904E-4
1234                      2.416977711832622E-4
1236                      1.9896788178779345E-4
1238                      1.905182560759502E-4