% Model:              Real life PV cells 2D moisture ingress for different materials_YB.mph
% Version:            COMSOL 6.2.0.290
% Date:               Apr 22 2024, 17:16
% Dimension:          1
% Nodes:              87601
% Expressions:        1
% Description:        Point graph
% Time (h)                c*(18/10^3)[kg/mol]/ST_EVA_YB(TMit(ampr1.T_amb,T_GHI(t),ampr1.v_amb))
0                         -1.211858839228064E-90
2                         1.3412166667658214E-87
4                         1.871942725273535E-90
6                         1.4743326230021722E-92
8                         -5.846158296926853E-93
10                        9.971575896901116E-94
12                        9.527199662907673E-92
14                        3.0412558441871445E-88
16                        5.868009828182916E-87
18                        3.563988602722493E-86
20                        1.467569036035491E-85
22                        7.982053446604596E-85
24                        4.57376236275395E-84
26                        2.3389105844428533E-83
28                        1.1231933369363061E-82
30                        5.1320452870580984E-82
32                        2.77006709882693E-81
34                        7.60796777110054E-80
36                        1.1843481892943857E-72
38                        7.287418134846114E-72
40                        2.798430076602817E-71
42                        8.36227109123418E-71
44                        6.107318765410878E-70
46                        3.8297716438127214E-69
48                        2.1323958849952352E-68
50                        6.37490516313644E-68
52                        1.6542466228106705E-67
54                        4.1019990209103125E-67
56                        1.0546021307745302E-66
58                        4.844743430298642E-66
60                        4.316467080596617E-65
62                        3.1881399081622334E-64
64                        1.5766049700045677E-63
66                        5.416199289215839E-63
68                        1.44452053846986E-62
70                        3.6076044483742977E-62
72                        1.791407871680933E-61
74                        7.901760196334028E-61
76                        3.163826658268651E-60
78                        7.80619306443185E-60
80                        1.8250196933555691E-59
82                        5.388217288481211E-59
84                        2.4965062162713234E-58
86                        1.5454215316015507E-57
88                        6.931386503603604E-57
90                        2.3651042080776173E-56
92                        7.102661724184139E-56
94                        2.7518531984949823E-55
96                        9.678219417848471E-55
98                        3.1319505500148164E-54
100                       9.485814358274084E-54
102                       2.722189214411836E-53
104                       6.083736744082656E-53
106                       1.52398345702745E-52
108                       5.14978683054204E-52
110                       2.820059996797313E-51
112                       1.0479112768838988E-50
114                       2.663906523721263E-50
116                       5.768265242573877E-50
118                       1.4695194630820467E-49
120                       3.961435962141166E-49
122                       1.00816884779833E-48
124                       2.445077641662703E-48
126                       5.700589318668035E-48
128                       1.1121086882245755E-47
130                       2.0495381925694858E-47
132                       5.645485532235839E-47
134                       4.193693125136262E-46
136                       1.7602161461752287E-45
138                       4.648171339700332E-45
140                       9.201971809190308E-45
142                       1.898254875724793E-44
144                       4.110425750218764E-44
146                       8.560296118230601E-44
148                       1.7220980137332993E-43
150                       3.3683513828555386E-43
152                       6.4525742051992716E-43
154                       1.1229359291650127E-42
156                       2.2956477778688128E-42
158                       5.7176423729379523E-42
160                       1.4242084481336637E-41
162                       3.1526269878604745E-41
164                       5.774326498282099E-41
166                       1.0938717099960938E-40
168                       2.082517132640743E-40
170                       3.847521783693834E-40
172                       6.920624310666768E-40
174                       1.216867932224279E-39
176                       2.1102706129252426E-39
178                       3.330609514596317E-39
180                       5.48069905959352E-39
182                       9.989962439840897E-39
184                       1.8660472743072E-38
186                       3.318377922236374E-38
188                       5.80154318202577E-38
190                       1.0111154172521777E-37
192                       1.7477218419665549E-37
194                       2.9517696752007594E-37
196                       4.882790490219909E-37
198                       7.925094440848435E-37
200                       1.2093035416629346E-36
202                       1.7755015851466546E-36
204                       2.7083959820118148E-36
206                       4.065944565539058E-36
208                       8.585236480237739E-36
210                       1.6582172129776154E-35
212                       2.6420556732996095E-35
214                       4.3218620839240145E-35
216                       6.919466164472175E-35
218                       1.0874477393025604E-34
220                       1.6799365000816075E-34
222                       2.5538013465359954E-34
224                       3.7148378493074046E-34
226                       5.14422142293886E-34
228                       7.505912620320038E-34
230                       1.0638017085748638E-33
232                       2.134300246694858E-33
234                       3.8255410028564466E-33
236                       5.743809503368214E-33
238                       8.661108108357284E-33
240                       1.305040704343565E-32
242                       1.9352910865495608E-32
244                       2.8270783265449594E-32
246                       4.073169455046731E-32
248                       5.831914816627468E-32
250                       7.717884820094624E-32
252                       1.1380573720676684E-31
254                       1.951673525969849E-31
256                       3.452170480046877E-31
258                       5.715625661091818E-31
260                       8.197917372395108E-31
262                       1.187142640532483E-30
264                       1.6929500987752273E-30
266                       2.3838291241988243E-30
268                       3.314731274963512E-30
270                       4.554609999970859E-30
272                       6.181485491321089E-30
274                       7.729576756245996E-30
276                       1.0886870396519904E-29
278                       1.848054040016231E-29
280                       3.137896218221282E-29
282                       5.091248827764779E-29
284                       6.976920490520994E-29
286                       9.622544399717391E-29
288                       1.3123815889174792E-28
290                       1.770894539089483E-28
292                       2.3645217044051023E-28
294                       3.1237852429541116E-28
296                       4.0384351254778165E-28
298                       4.751846711994086E-28
300                       5.883151690312846E-28
302                       9.569753785153291E-28
304                       1.638878904652357E-27
306                       2.6500411052860822E-27
308                       3.532282542978743E-27
310                       4.6974665341901014E-27
312                       6.179821834928002E-27
314                       8.056484259178771E-27
316                       1.0406765458726555E-26
318                       1.3315412628213556E-26
320                       1.6753196828685176E-26
322                       1.871753120851871E-26
324                       2.3023267412426656E-26
326                       3.7292112829779126E-26
328                       6.386137014963732E-26
330                       1.0129216608583847E-25
332                       1.3042043009115327E-25
334                       1.674622832171641E-25
336                       2.1335667221815874E-25
338                       2.6984303373885114E-25
340                       3.385517014559018E-25
342                       4.211307438085775E-25
344                       5.197862057141793E-25
346                       5.701498717357885E-25
348                       7.002869537826808E-25
350                       1.0366666822087292E-24
352                       1.6662743778479905E-24
354                       2.6175089121311982E-24
356                       3.2948315442161122E-24
358                       4.1241886235278265E-24
360                       5.118315068048494E-24
362                       6.312246446219731E-24
364                       7.73054320525446E-24
366                       9.392492682659701E-24
368                       1.1329932620132634E-23
370                       1.1941247549475361E-23
372                       1.415099265167986E-23
374                       2.0432253756674857E-23
376                       3.206767727622052E-23
378                       4.8621276322596095E-23
380                       5.984315022986972E-23
382                       7.31798049914553E-23
384                       8.878326407703085E-23
386                       1.0713748487859754E-22
388                       1.2845441036324867E-22
390                       1.5291292531792305E-22
392                       1.8118284012472221E-22
394                       1.8810385877158015E-22
396                       2.2511435916807267E-22
398                       2.9740127507374315E-22
400                       4.263239205498273E-22
402                       6.272952256203581E-22
404                       7.59818522406482E-22
406                       9.107312431378364E-22
408                       1.0836226184568626E-21
410                       1.2841090053435387E-21
412                       1.513212705244511E-21
414                       1.7710908462002188E-21
416                       2.0628361487005916E-21
418                       2.1001537755689617E-21
420                       2.325586623534755E-21
422                       3.059958233741913E-21
424                       4.476513090062702E-21
426                       6.529413179864893E-21
428                       7.775566313400503E-21
430                       9.16492573560023E-21
432                       1.0732262629028496E-20
434                       1.2520169375102683E-20
436                       1.4530838995487222E-20
438                       1.675789729828228E-20
440                       1.9207583712637812E-20
442                       1.8923389213274184E-20
444                       2.1042178141691372E-20
446                       2.8332685434732904E-20
448                       3.4028293129095847E-20
450                       4.806764227286237E-20
452                       5.645918770720429E-20
454                       6.56669218440528E-20
456                       7.588954611552307E-20
458                       8.743584058573605E-20
460                       1.0026760133515328E-19
462                       1.142948344312975E-19
464                       1.298690522374117E-19
466                       1.3023758109051329E-19
468                       1.3874577667520407E-19
470                       1.7125707450187438E-19
472                       2.2710173018877727E-19
474                       3.133168337820322E-19
476                       3.64829047783353E-19
478                       4.191298833527978E-19
480                       4.786946612582024E-19
482                       5.452454099886214E-19
484                       6.183673184385047E-19
486                       6.9731162501114675E-19
488                       7.837616923917809E-19
490                       7.731939531437668E-19
492                       7.909950665809739E-19
494                       9.560352525770007E-19
496                       1.2959415907257764E-18
498                       1.8348247544746882E-18
500                       2.1122559011841513E-18
502                       2.3999147236520415E-18
504                       2.7125051418759893E-18
506                       3.0576231351266628E-18
508                       3.43254144257623E-18
510                       3.832805567465139E-18
512                       4.254258656640734E-18
514                       4.277104177934061E-18
516                       4.2943207078782125E-18
518                       5.197832370793306E-18
520                       6.4564833255258485E-18
522                       7.998185411557127E-18
524                       9.104130714027242E-18
526                       1.0253629622859385E-17
528                       1.149138150756769E-17
530                       1.2848173336314738E-17
532                       1.431020213249839E-17
534                       1.585639379026713E-17
536                       1.7500090823610296E-17
538                       1.6383118046242035E-17
540                       1.621328742652586E-17
542                       1.9580760639437323E-17
544                       2.6713916761471503E-17
546                       3.772975824164385E-17
548                       4.270817045329556E-17
550                       4.7672192922021953E-17
552                       5.296745795680911E-17
554                       5.872771199344235E-17
556                       6.488151246901658E-17
558                       7.132675299820057E-17
560                       7.810824762484857E-17
562                       7.270475031766004E-17
564                       7.098904455165451E-17
566                       8.370140983550261E-17
568                       1.1173324755845462E-16
570                       1.5571591190925388E-16
572                       1.750653651053647E-16
574                       1.9385736336955962E-16
576                       2.1375743426972912E-16
578                       2.3528103676209355E-16
580                       2.5810962488691416E-16
582                       2.8180651339355007E-16
584                       3.0670884247768803E-16
586                       2.8448663153045255E-16
588                       2.7393416334102264E-16
590                       3.12689409132491E-16
592                       4.0881292370480295E-16
594                       5.640217149895671E-16
596                       6.305654091770671E-16
598                       6.937223352543261E-16
600                       7.60067124407868E-16
602                       8.313121709125227E-16
604                       9.063208878296797E-16
606                       9.836293203349155E-16
608                       1.0626422346745306E-15
610                       9.804558240566325E-16
612                       9.550641272673091E-16
614                       1.073698448654537E-15
616                       1.3764070528265243E-15
618                       1.839600628984089E-15
620                       2.0436051008937256E-15
622                       2.23456524884999E-15
624                       2.433756948236396E-15
626                       2.647006300475394E-15
628                       2.870368207026825E-15
630                       3.0989940513162467E-15
632                       3.336384198413993E-15
634                       3.04696737284544E-15
636                       3.1081183095238266E-15
638                       3.835684156263697E-15
640                       4.109869628300122E-15
642                       5.050452839392628E-15
644                       5.5668376272983194E-15
646                       6.057718141937537E-15
648                       6.566957110409232E-15
650                       7.109610470760673E-15
652                       7.675018651659935E-15
654                       8.249875907268066E-15
656                       8.837584524717238E-15
658                       8.035878797781433E-15
660                       7.53898299986293E-15
662                       8.301893087869143E-15
664                       1.0557575599961711E-14
666                       1.4247137669898163E-14
668                       1.570169571818411E-14
670                       1.7002716494473802E-14
672                       1.8345063646598513E-14
674                       1.9770133425339533E-14
676                       2.124767340852505E-14
678                       2.2742032478984423E-14
680                       2.425610497710257E-14
682                       2.2302279913021582E-14
684                       2.067073930385838E-14
686                       2.2420209799782212E-14
688                       2.8365684222992197E-14
690                       3.777714373209753E-14
692                       4.153379568329113E-14
694                       4.477738250587319E-14
696                       4.810990936613457E-14
698                       5.163090816569094E-14
700                       5.526219966303716E-14
702                       5.891081136906113E-14
704                       6.254525999566865E-14
706                       5.60148886717354E-14
708                       5.37079818400209E-14
710                       5.928969783410824E-14
712                       7.426816283551657E-14
714                       9.180671754461156E-14
716                       1.0034553882302381E-13
718                       1.0775146873828502E-13
720                       1.1533881787830076E-13
722                       1.2332356512266704E-13
724                       1.315206727362302E-13
726                       1.3973148925261354E-13
728                       1.4768711529005794E-13
730                       1.4809154217857374E-13
732                       1.3630663082873677E-13
734                       1.384909601076073E-13
736                       1.5993583301182066E-13
738                       1.9691082722885675E-13
740                       2.1460537503656158E-13
742                       2.2972815125093585E-13
744                       2.4512623610982553E-13
746                       2.6131033499105777E-13
748                       2.7787851323188063E-13
750                       2.943857542722827E-13
752                       3.1051745945962574E-13
754                       2.8707577733691474E-13
756                       2.703306999768426E-13
758                       2.8669973375495546E-13
760                       3.5262193782363883E-13
762                       4.221233729327316E-13
764                       4.572439286818E-13
766                       4.878965292933502E-13
768                       5.190500327000967E-13
770                       5.516982954374159E-13
772                       5.849943834863133E-13
774                       6.179942727931235E-13
776                       6.492148978315823E-13
778                       6.456157786087673E-13
780                       5.812740056316079E-13
782                       5.790228936392279E-13
784                       6.377194087774979E-13
786                       8.535764565408486E-13
788                       9.314897133266502E-13
790                       9.911546811104128E-13
792                       1.0515608652029083E-12
794                       1.1147095595708902E-12
796                       1.1789054832116383E-12
798                       1.2423535930319978E-12
800                       1.3034877862740473E-12
802                       1.1594770489678958E-12
804                       1.0512621953004282E-12
806                       1.1163480892729398E-12
808                       1.3542872675110273E-12
810                       1.7985981330726282E-12
812                       1.9567724175872352E-12
814                       2.0761608297573944E-12
816                       2.1968106172080242E-12
818                       2.322373201381032E-12
820                       2.449417546411737E-12
822                       2.5744746798478987E-12
824                       2.6878104932675123E-12
826                       2.3511249063654676E-12
828                       2.11518195624563E-12
830                       2.550480359160317E-12
832                       3.003034050846906E-12
834                       3.521598601481515E-12
836                       3.7910996337901855E-12
838                       4.012585559513141E-12
840                       4.235635288466345E-12
842                       4.467329125277209E-12
844                       4.70105912305494E-12
846                       4.930169736139607E-12
848                       5.139989739010904E-12
850                       4.615147023758473E-12
852                       4.199738658440553E-12
854                       4.371035271487509E-12
856                       5.150505155819163E-12
858                       6.532787491799882E-12
860                       7.084765058636325E-12
862                       7.481608892242624E-12
864                       7.879948077495712E-12
866                       8.293186947967518E-12
868                       8.708465285486524E-12
870                       9.113128165592753E-12
872                       9.478755426977072E-12
874                       8.587130851803812E-12
876                       7.869913220994743E-12
878                       8.077428590776193E-12
880                       9.466989157480703E-12
882                       1.1706678226736593E-11
884                       1.2660601348041845E-11
886                       1.3342004642684781E-11
888                       1.4025208322968594E-11
890                       1.4732730235495205E-11
892                       1.5442705896954933E-11
894                       1.6133467673873922E-11
896                       1.6753885121551057E-11
898                       1.4842354369773353E-11
900                       1.3447670469790873E-11
902                       1.3894166503856763E-11
904                       1.6200378170588664E-11
906                       2.0754953965659923E-11
908                       2.2517760370078328E-11
910                       2.368402409523766E-11
912                       2.4849341719782898E-11
914                       2.605413729402533E-11
916                       2.7260538095073447E-11
918                       2.8429964876650812E-11
920                       2.944081885585827E-11
922                       2.8494711654199348E-11
924                       2.6810790796947002E-11
926                       2.49211221193341E-11
928                       2.8008267325041123E-11
930                       3.365863323905215E-11
932                       3.726027218574695E-11
934                       3.912411178261237E-11
936                       4.098493169530764E-11
938                       4.290545746232523E-11
940                       4.482293997458475E-11
942                       4.66777766978697E-11
944                       4.8283733922868714E-11
946                       4.33164400338042E-11
948                       3.90975095519564E-11
950                       3.997578388178219E-11
952                       4.681122081526582E-11
954                       5.614456354192461E-11
956                       6.118351943934844E-11
958                       6.41426046163462E-11
960                       6.709012277817404E-11
962                       7.012698207074262E-11
964                       7.315332182705564E-11
966                       7.607330304203963E-11
968                       7.85481045848564E-11
970                       7.237893024411152E-11
972                       6.7737733036336E-11
974                       6.806411346923279E-11
976                       7.58122111859543E-11
978                       8.93422650534005E-11
980                       9.687427276645935E-11
982                       1.0141276996149716E-10
984                       1.059294433406266E-10
986                       1.1057566841584559E-10
988                       1.1519278979028818E-10
990                       1.1963747623552978E-10
992                       1.2334641380824573E-10
994                       1.1166215125429097E-10
996                       1.0266657147408081E-10
998                       1.0398562521370675E-10
1000                      1.1871262818423656E-10
1002                      1.392780955949191E-10
1004                      1.5161537104759231E-10
1006                      1.5850479599772802E-10
1008                      1.653488958273932E-10
1010                      1.7237264428921284E-10
1012                      1.7933797708745454E-10
1014                      1.8603604471022345E-10
1016                      1.914510090099296E-10
1018                      1.7494969642588198E-10
1020                      1.632275858235581E-10
1022                      1.6599210485099844E-10
1024                      1.8150693926992046E-10
1026                      2.130665043673402E-10
1028                      2.2995572540633796E-10
1030                      2.401090321641811E-10
1032                      2.501844711694987E-10
1034                      2.605066592702726E-10
1036                      2.7071990635218244E-10
1038                      2.805243390726327E-10
1040                      2.883034412778314E-10
1042                      2.608547873284511E-10
1044                      2.4529764719041223E-10
1046                      2.4069646240993085E-10
1048                      2.71289168125899E-10
1050                      3.118183248743198E-10
1052                      3.456653490282246E-10
1054                      3.6049897548317267E-10
1056                      3.752095613149545E-10
1058                      3.9026252611910866E-10
1060                      4.05119768149455E-10
1062                      4.193443561081601E-10
1064                      4.3058508506665223E-10
1066                      3.84022384722361E-10
1068                      3.3262272357962845E-10
1070                      3.4537638525796126E-10
1072                      3.818338163120761E-10
1074                      4.757169435870473E-10
1076                      5.221096399353918E-10
1078                      5.438729249263551E-10
1080                      5.654281967471413E-10
1082                      5.874580756406099E-10
1084                      6.09176066884776E-10
1086                      6.299655648852428E-10
1088                      6.455669166403131E-10
1090                      5.402313448362782E-10
1092                      4.764894416687799E-10
1094                      4.834987863803556E-10
1096                      5.665608464530313E-10
1098                      7.248272603395896E-10
1100                      8.06092819766324E-10
1102                      8.389691901060095E-10
1104                      8.700891988592597E-10
1106                      9.030220134345817E-10
1108                      9.35352635741864E-10
1110                      9.662097441904703E-10
1112                      9.8840011890637E-10
1114                      8.105962432586513E-10
1116                      7.080808587257778E-10
1118                      7.214695594685568E-10
1120                      8.500363840679813E-10
1122                      1.0986429426145755E-9
1124                      1.2256510082106604E-9
1126                      1.273974869401596E-9
1128                      1.3199571955591216E-9
1130                      1.3685472131394569E-9
1132                      1.416102747231773E-9
1134                      1.4613974391699728E-9
1136                      1.4934207457648136E-9
1138                      1.2232323160003972E-9
1140                      1.0644767337330998E-9
1142                      1.0786149105221956E-9
1144                      1.2686096672845487E-9
1146                      1.6410754703569925E-9
1148                      1.8348620297773591E-9
1150                      1.905382370830987E-9
1152                      1.972330531836521E-9
1154                      2.0429839167180257E-9
1156                      2.1119735137904615E-9
1158                      2.177638904478889E-9
1160                      2.219899786470358E-9
1162                      1.8666529547623402E-9
1164                      1.6456256914587848E-9
1166                      1.6501834312195072E-9
1168                      1.932800430045665E-9
1170                      2.4045845111946296E-9
1172                      2.6560261999828617E-9
1174                      2.755989426283134E-9
1176                      2.850775578762361E-9
1178                      2.9503803432460736E-9
1180                      3.0472402844441494E-9
1182                      3.139297781418232E-9
1184                      3.1984228119260563E-9
1186                      2.62241442692192E-9
1188                      2.294932999886015E-9
1190                      2.3078798166481634E-9
1192                      2.6880599256931305E-9
1194                      3.4559155099210773E-9
1196                      3.870972249895568E-9
1198                      4.013371660716031E-9
1200                      4.1481254035556735E-9
1202                      4.28937631775171E-9
1204                      4.426340507779103E-9
1206                      4.556590071743107E-9
1208                      4.632896456025346E-9
1210                      3.814843733707739E-9
1212                      3.3170732755043777E-9
1214                      3.3493045816459882E-9
1216                      3.870461514247068E-9
1218                      4.9572416817278485E-9
1220                      5.544201034857692E-9
1222                      5.7438077044949945E-9
1224                      5.932421101115742E-9