% Model:              Real life PV cells 2D moisture ingress for different materials_YB.mph
% Version:            COMSOL 6.2.0.290
% Date:               Apr 23 2024, 07:36
% Dimension:          1
% Nodes:              87601
% Expressions:        1
% Description:        Point graph
% Time (h)                c*(18/10^3)[kg/mol]/ST_EVA_YB(TMit(ampr1.T_amb,T_GHI(t),ampr1.v_amb))
0                         -8.641746211070852E-91
2                         5.862286763447663E-87
4                         -4.353286925605405E-89
6                         -4.410600488672124E-90
8                         2.0002611653281236E-90
10                        -1.0331747205191975E-91
12                        5.1615825984502255E-93
14                        -2.6578793296051906E-94
16                        1.494449187043424E-94
18                        1.9130808307204996E-94
20                        3.5419341904045653E-94
22                        6.310700009745058E-94
24                        1.101039734394143E-93
26                        1.88744997629465E-93
28                        3.1882746654912856E-93
30                        5.340151398012543E-93
32                        2.9194263730400047E-91
34                        9.580142371526795E-86
36                        2.8425267323814138E-81
38                        4.3521985375179795E-80
40                        2.701908176481633E-79
42                        9.225829814687389E-79
44                        3.966573060551975E-78
46                        1.5541096456445913E-77
48                        5.696955740949841E-77
50                        1.9792013669244306E-76
52                        4.8938072926491264E-76
54                        1.0986407101513125E-75
56                        3.2237900438384654E-75
58                        2.8359926704144787E-74
60                        1.3209459030580295E-72
62                        8.835571122164609E-72
64                        3.4283660096215714E-71
66                        1.0102053956617405E-70
68                        2.3551970316919525E-70
70                        5.217549640663267E-70
72                        1.6546415304437553E-69
74                        4.988750037463301E-69
76                        1.438717485016838E-68
78                        3.1027028605293696E-68
80                        6.998631422982198E-68
82                        3.659133111392348E-67
84                        6.18635173062617E-66
86                        4.04970263611653E-65
88                        1.3660681962794704E-64
90                        3.150380047562635E-64
92                        8.755377736176608E-64
94                        2.4670004984839855E-63
96                        6.598125741905149E-63
98                        1.6902226996197858E-62
100                       3.5877299149920327E-62
102                       6.9839238642400195E-62
104                       1.4603270368952625E-61
106                       3.89832629362018E-61
108                       1.6857061091071667E-60
110                       7.175138432011225E-60
112                       2.338607148976399E-59
114                       5.737753886831604E-59
116                       1.1711931695660255E-58
118                       2.2718131957255006E-58
120                       5.2755978287291274E-58
122                       1.2086028574366893E-57
124                       2.674876941813684E-57
126                       5.859159411333697E-57
128                       1.7124903932005696E-56
130                       5.142989961196969E-56
132                       2.6587483602032808E-55
134                       9.048710318848952E-55
136                       2.727790856898136E-54
138                       6.763232766107805E-54
140                       1.5145106333902577E-53
142                       3.2096450045119353E-53
144                       6.570435117821601E-53
146                       1.3052125157771627E-52
148                       2.3090445778731494E-52
150                       3.88100044043935E-52
152                       6.897502660341909E-52
154                       1.3971945747154732E-51
156                       3.766409643162615E-51
158                       1.2977933422266002E-50
160                       4.0066597898701326E-50
162                       8.491988338634229E-50
164                       1.5854851476344353E-49
166                       3.046160200398662E-49
168                       5.682499047919547E-49
170                       1.0328235314997816E-48
172                       1.8348371506660204E-48
174                       3.2239670435840484E-48
176                       6.314745045718588E-48
178                       1.2160688633929568E-47
180                       1.563172448941608E-46
182                       4.906793963498411E-46
184                       1.2330405401940204E-45
186                       2.4588887352327167E-45
188                       4.023990595561266E-45
190                       6.654369353963977E-45
192                       1.0865729030948293E-44
194                       1.7416477346781734E-44
196                       2.750701768879134E-44
198                       4.3163647470317253E-44
200                       7.017900903499221E-44
202                       1.3268202163563433E-43
204                       2.6143895652933604E-43
206                       7.503013969296346E-43
208                       1.7630295631203677E-42
210                       3.261302207171367E-42
212                       5.1137617462109466E-42
214                       8.005656354455729E-42
216                       1.231717992748149E-41
218                       1.863816153101253E-41
220                       2.7803633418034656E-41
222                       4.1095018352974263E-41
224                       6.295070048805487E-41
226                       1.023480954950851E-40
228                       1.9935248564619352E-40
230                       3.960468333196177E-40
232                       7.229169495402954E-40
234                       1.2145738901622338E-39
236                       1.8120729282492814E-39
238                       2.6991603742963895E-39
240                       3.960412015761617E-39
242                       5.724247454493036E-39
244                       8.178573504977167E-39
246                       1.1591661216435107E-38
248                       1.6223732871134032E-38
250                       2.1592505520259538E-38
252                       3.888787819130507E-38
254                       6.859332968952379E-38
256                       1.268778827904643E-37
258                       2.1201042787824694E-37
260                       2.99437908727528E-37
262                       4.250212893118527E-37
264                       5.994566013757917E-37
266                       8.338264181351987E-37
268                       1.1470949542812424E-36
270                       1.563802830140155E-36
272                       2.1633769676975372E-36
274                       2.915688805211388E-36
276                       4.392885423116628E-36
278                       6.848717626767525E-36
280                       1.0938087751963072E-35
282                       1.634828068382177E-35
284                       2.3072418200495197E-35
286                       3.176915260297546E-35
288                       4.32606883176625E-35
290                       5.81802894552837E-35
292                       7.720682503597865E-35
294                       9.965323414035976E-35
296                       1.249555761748035E-34
298                       1.4558314256692337E-34
300                       2.315329439298085E-34
302                       3.902521263641126E-34
304                       6.377687615061486E-34
306                       9.493860990565934E-34
308                       1.2873617446182255E-33
310                       1.7193023853606356E-33
312                       2.2750657025387756E-33
314                       2.975232471513071E-33
316                       3.847816496050537E-33
318                       4.937425795436101E-33
320                       6.076739604983749E-33
322                       7.27153113710327E-33
324                       1.1989562695594207E-32
326                       2.1340976701301748E-32
328                       3.7313249281039354E-32
330                       5.764420167485799E-32
332                       7.478993736919053E-32
334                       9.66650303229663E-32
336                       1.2414658315247298E-31
338                       1.5776129476800864E-31
340                       1.98350679006347E-31
342                       2.4791565797076206E-31
344                       3.0999453563840816E-31
346                       3.7776422572849617E-31
348                       4.840929615501277E-31
350                       6.477565531393749E-31
352                       8.871867036167796E-31
354                       1.1737245820813941E-30
356                       1.5178861177951677E-30
358                       1.9225685179147344E-30
360                       2.4192900895470912E-30
362                       3.0125622087018698E-30
364                       3.714345459782865E-30
366                       4.498214264678942E-30
368                       5.3938676005722046E-30
370                       6.2337130358813386E-30
372                       7.564491848426492E-30
374                       8.185053799870756E-30
376                       1.294419921226949E-29
378                       1.866573412913607E-29
380                       2.3499870716720645E-29
382                       2.920357249982275E-29
384                       3.606244869123553E-29
386                       4.420540639122594E-29
388                       5.383507277432504E-29
390                       6.509777027722918E-29
392                       7.740017416028274E-29
394                       9.018368843243647E-29
396                       1.050700250731656E-28
398                       1.422014710891686E-28
400                       2.300211537410629E-28
402                       3.3678532686795787E-28
404                       4.164383397072325E-28
406                       5.084780715304786E-28
408                       6.165673801176639E-28
410                       7.42249447369764E-28
412                       8.893732670707815E-28
414                       1.0581805150124536E-27
416                       1.2545250639882076E-27
418                       1.2885715326535865E-27
420                       1.5035424823847766E-27
422                       2.572021038068217E-27
424                       3.357868031391925E-27
426                       4.182578809806695E-27
428                       5.1218926891141524E-27
430                       6.155190469791319E-27
432                       7.36302509988746E-27
434                       8.763974769767257E-27
436                       1.034957953687874E-26
438                       1.2061410506736289E-26
440                       1.380219411938827E-26
442                       1.4646672682448155E-26
444                       1.747711701433766E-26
446                       2.2785822605147426E-26
448                       3.285585553475152E-26
450                       4.5727905780762825E-26
452                       5.514258866227768E-26
454                       6.553700054726783E-26
456                       7.74105601716475E-26
458                       9.101304982292939E-26
460                       1.0647221718900606E-25
462                       1.2382240219153631E-25
464                       1.3874279793148521E-25
466                       1.4358286730852876E-25
468                       1.8555952899476754E-25
470                       2.068844489387056E-25
472                       2.9191140379706424E-25
474                       3.8187481868947404E-25
476                       4.553774870377862E-25
478                       5.354052165727259E-25
480                       6.257048345225382E-25
482                       7.279550172178225E-25
484                       8.428550109999789E-25
486                       9.686968522885043E-25
488                       1.093965371560591E-24
490                       1.1677382390663751E-24
492                       1.2917468292361447E-24
494                       1.7305371781900855E-24
496                       2.2282318107523227E-24
498                       2.7412038832883406E-24
500                       3.2453373278867065E-24
502                       3.760166214862733E-24
504                       4.3481578613025085E-24
506                       5.0104204957573236E-24
508                       5.7417388582925976E-24
510                       6.535428069574833E-24
512                       7.349617674422761E-24
514                       7.97166373112791E-24
516                       8.862460090374509E-24
518                       1.0652873357164289E-23
520                       1.4352123993269357E-23
522                       1.7834326484560666E-23
524                       2.0920332272149302E-23
526                       2.4090930486204888E-23
528                       2.7623872641862527E-23
530                       3.154724027389887E-23
532                       3.587282052215263E-23
534                       4.0493547767358337E-23
536                       4.448018954310293E-23
538                       4.377664707672759E-23
540                       4.973056970465363E-23
542                       6.398647663827895E-23
544                       9.125821568448331E-23
546                       1.1923558378488086E-22
548                       1.3833156015896161E-22
550                       1.5799696644560847E-22
552                       1.7954122703056993E-22
554                       2.0324924386341158E-22
556                       2.2913305658236603E-22
558                       2.5552199271073E-22
560                       2.8249451554624994E-22
562                       2.826265410203156E-22
564                       2.9846978499065083E-22
566                       3.782265259477274E-22
568                       4.737497164805428E-22
570                       5.801973752769518E-22
572                       6.685966255967635E-22
574                       7.568410999930675E-22
576                       8.53897788993492E-22
578                       9.598554585257567E-22
580                       1.0748308090873077E-21
582                       1.1909370233911714E-21
584                       1.2972093474102963E-21
586                       1.303659705974733E-21
588                       1.3379534281198513E-21
590                       1.6590583135160893E-21
592                       2.227713052608892E-21
594                       2.5907107372660647E-21
596                       2.967912559359428E-21
598                       3.342058650259342E-21
600                       3.745478402270115E-21
602                       4.183088616633223E-21
604                       4.6547989142159336E-21
606                       5.129487574013988E-21
608                       5.487727087006094E-21
610                       5.3036871479715335E-21
612                       5.7374246421749185E-21
614                       6.803421579924842E-21
616                       8.762798904709654E-21
618                       1.1194984700844554E-20
620                       1.271704087535152E-20
622                       1.4227163353864335E-20
624                       1.5844605422949926E-20
626                       1.7586498349274937E-20
628                       1.9444835159577978E-20
630                       2.1346059126052117E-20
632                       2.2993569899279678E-20
634                       2.2795176825364323E-20
636                       2.4460023065707523E-20
638                       2.887861265870871E-20
640                       3.6320744416204517E-20
642                       4.4393375767877196E-20
644                       5.016684755275676E-20
646                       5.567121642156159E-20
648                       6.163570034736081E-20
650                       6.801744410097008E-20
652                       7.481108096524844E-20
654                       8.169342604744334E-20
656                       8.682668303707417E-20
658                       8.736738675876894E-20
660                       9.473256775946796E-20
662                       1.0958943880492248E-19
664                       1.2982656184505953E-19
666                       1.5861855092893512E-19
668                       1.7848131011144462E-19
670                       1.9724008288245563E-19
672                       2.1723775986804133E-19
674                       2.384815781289582E-19
676                       2.609927988360287E-19
678                       2.8295757591591477E-19
680                       3.0026226302181747E-19
682                       2.7576350138854225E-19
684                       2.8901620233403167E-19
686                       3.6635862926069423E-19
688                       4.676510011035879E-19
690                       5.305068852662971E-19
692                       5.935360958075375E-19
694                       6.531257890266588E-19
696                       7.1585014373673395E-19
698                       7.820952726755897E-19
700                       8.519115179224079E-19
702                       9.194848448875989E-19
704                       9.800324450602365E-19
706                       9.930984291062687E-19
708                       1.035260619757533E-18
710                       9.754493278710396E-19
712                       1.24937791450579E-18
714                       1.5865259243927623E-18
716                       1.7665974873257635E-18
718                       1.9348960986132384E-18
720                       2.1117571819201E-18
722                       2.2975091853619762E-18
724                       2.492606116305852E-18
726                       2.6797883346409084E-18
728                       2.8075791968045393E-18
730                       2.737789560622165E-18
732                       2.816195640456773E-18
734                       3.1908251415159716E-18
736                       3.807069672397902E-18
738                       4.488088690256906E-18
740                       4.9806668282477076E-18
742                       5.433414351148203E-18
744                       5.906532070304812E-18
746                       6.4008652679305796E-18
748                       6.916145197809196E-18
750                       7.419187866832065E-18
752                       7.66243290365909E-18
754                       6.972815061089631E-18
756                       7.300275704039562E-18
758                       8.332040905526547E-18
760                       1.0760631689933389E-17
762                       1.3780714587858082E-17
764                       1.521714980669301E-17
766                       1.6530109599540625E-17
768                       1.7893535573752305E-17
770                       1.9310367394021078E-17
772                       2.0789368077748955E-17
774                       2.222546845401174E-17
776                       2.2814546180996163E-17
778                       2.1359010075602488E-17
780                       2.1533666810317616E-17
782                       2.4823735279679955E-17
784                       3.132091061834169E-17
786                       3.9671814950447677E-17
788                       4.369141157099034E-17
790                       4.727614185897646E-17
792                       5.097633589339858E-17
794                       5.480066745849376E-17
796                       5.877332042254479E-17
798                       6.256025662694657E-17
800                       6.517634857049338E-17
802                       5.862760814077013E-17
804                       6.066454141745661E-17
806                       6.874267284118512E-17
808                       8.218064444889563E-17
810                       1.0204017179192668E-16
812                       1.1212238805376184E-16
814                       1.2091215382872221E-16
816                       1.2994249991860594E-16
818                       1.3922782510443475E-16
820                       1.488359246053344E-16
822                       1.5791832735970993E-16
824                       1.5858055420537038E-16
826                       1.470203271667696E-16
828                       1.4066356907071295E-16
830                       1.758211464207681E-16
832                       2.1767144730219382E-16
834                       2.574771998182111E-16
836                       2.8134798377342246E-16
838                       3.024019400784673E-16
840                       3.2396057391502994E-16
842                       3.4600656613509536E-16
844                       3.6874281278444006E-16
846                       3.8997090446666065E-16
848                       3.9496201489540074E-16
850                       3.537085273462675E-16
852                       3.516915373271283E-16
854                       4.0334557249944326E-16
856                       5.175217274987184E-16
858                       6.554085724457271E-16
860                       7.14272967587959E-16
862                       7.651171230467275E-16
864                       8.170574660412197E-16
866                       8.699105363069551E-16
868                       9.243570095971343E-16
870                       9.745048582025781E-16
872                       1.0152074843785299E-15
874                       1.0114818322539599E-15
876                       1.0358884647954411E-15
878                       1.0968573591388849E-15
880                       1.2127907411136523E-15
882                       1.3454415571136727E-15
884                       1.4623922868082955E-15
886                       1.5629713290669095E-15
888                       1.6651586552670823E-15
890                       1.7686863028933876E-15
892                       1.874932513534515E-15
894                       1.970349748786863E-15
896                       2.048048846398506E-15
898                       2.0427746395496186E-15
900                       2.086496623557512E-15
902                       1.8443818333255878E-15
904                       2.244801199016279E-15
906                       2.7152369642484235E-15
908                       2.9473565533370667E-15
910                       3.142797502217768E-15
912                       3.3409034531791016E-15
914                       3.540675045525998E-15
916                       3.744813333940311E-15
918                       3.929992862820715E-15
920                       3.9754590761374746E-15
922                       3.632609598662888E-15
924                       3.810889572263931E-15
926                       4.036422275728345E-15
928                       4.929974721141046E-15
930                       5.564490431583519E-15
932                       6.021005700893775E-15
934                       6.405620912456078E-15
936                       6.794150408308093E-15
938                       7.184203811542972E-15
940                       7.582221980963884E-15
942                       7.938950626265463E-15
944                       7.881212943434006E-15
946                       6.92822298149489E-15
948                       6.729995346445277E-15
950                       7.59973664690651E-15
952                       9.603164721710671E-15
954                       1.2009297468500949E-14
956                       1.2983026874077633E-14
958                       1.377778282589551E-14
960                       1.4578093475950596E-14
962                       1.5378293005832665E-14
964                       1.6194880789179902E-14
966                       1.6918967183806448E-14
968                       1.6893185432393067E-14
970                       1.4820222703915184E-14
972                       1.443924015516945E-14
974                       1.6003985048806405E-14
976                       2.006791525987248E-14
978                       2.504352567768249E-14
980                       2.702977483609951E-14
982                       2.861940392782752E-14
984                       3.0216675851159285E-14
986                       3.180407419812185E-14
988                       3.3418795694274905E-14
990                       3.4833368876023587E-14
992                       3.5538305816545513E-14
994                       3.411612067653832E-14
996                       3.453210375387059E-14
998                       3.6508781856599835E-14
1000                      4.031023194907948E-14
1002                      4.537784271244642E-14
1004                      4.880537975972117E-14
1006                      5.158295295412563E-14
1008                      5.4355111634185386E-14
1010                      5.711133250163071E-14
1012                      5.991312837225673E-14
1014                      6.233784373855726E-14
1016                      6.30498086882014E-14
1018                      5.797608033882658E-14
1020                      5.48498294245496E-14
1022                      5.816735302555274E-14
1024                      6.804354764737505E-14
1026                      8.597688397859026E-14
1028                      9.257635541054057E-14
1030                      9.76684378547428E-14
1032                      1.0275410624524554E-13
1034                      1.077630419521473E-13
1036                      1.1284698072536626E-13
1038                      1.1713424391185131E-13
1040                      1.1543381396960768E-13
1042                      1.0253350102722546E-13
1044                      1.1436509436949387E-13
1046                      1.05217268282574E-13
1048                      1.220391897133082E-13
1050                      1.5722637927765658E-13
1052                      1.691099082745183E-13
1054                      1.781033127470812E-13
1056                      1.8706595706515602E-13
1058                      1.958500225541869E-13
1060                      2.0474872551251355E-13
1062                      2.1228211482868317E-13
1064                      2.119811670732193E-13
1066                      1.98320037730992E-13
1068                      1.9266000108448478E-13
1070                      2.0781649100940726E-13
1072                      2.400593699350872E-13
1074                      2.7295701725741663E-13
1076                      2.92088174212946E-13
1078                      3.071561108708571E-13
1080                      3.221299411315762E-13
1082                      3.36742824423559E-13
1084                      3.5155169593584473E-13
1086                      3.6397533045902875E-13
1088                      3.6402602305758943E-13
1090                      3.296729159438554E-13
1092                      3.2183802633732345E-13
1094                      3.4129532832303907E-13
1096                      3.9890333559602784E-13
1098                      4.682514161147085E-13
1100                      5.006965625179156E-13
1102                      5.257513116802298E-13
1104                      5.497523168035897E-13
1106                      5.739722407562837E-13
1108                      5.984401019191935E-13
1110                      6.186586381802605E-13
1112                      5.916025095512108E-13
1114                      4.850571887978536E-13
1116                      5.109124858742975E-13
1118                      6.331593689889477E-13
1120                      7.422739771458304E-13
1122                      8.027228123779396E-13
1124                      8.568237958417672E-13
1126                      8.986100042076292E-13
1128                      9.385034473691576E-13
1130                      9.78644316821284E-13
1132                      1.0191854897959933E-12
1134                      1.0522788888427407E-12
1136                      1.0389923653827787E-12
1138                      9.140570152995725E-13
1140                      8.404583343092036E-13
1142                      9.35783542362376E-13
1144                      1.1232627392356907E-12
1146                      1.386758409365308E-12
1148                      1.478517323456402E-12
1150                      1.5485916808875377E-12
1152                      1.6154925467917999E-12
1154                      1.682499075647452E-12
1156                      1.7500117402379698E-12
1158                      1.8038946436021596E-12
1160                      1.7469160978467048E-12
1162                      1.4455018922289069E-12
1164                      1.4105466867631626E-12
1166                      1.5031303746238306E-12
1168                      1.8741109587734303E-12
1170                      2.407569167444534E-12
1172                      2.580236578593353E-12
1174                      2.6991418429031494E-12
1176                      2.8122958882486264E-12
1178                      2.9252688394631963E-12
1180                      3.039039869144971E-12
1182                      3.129687465544529E-12
1184                      2.9863866275435366E-12
1186                      2.494514026013404E-12
1188                      2.323517878316238E-12
1190                      2.672766331040189E-12
1192                      3.38039787725048E-12
1194                      4.142633313152875E-12
1196                      4.421325279951494E-12
1198                      4.619334864440435E-12
1200                      4.807606361046799E-12
1202                      4.994770648441058E-12
1204                      5.1825428583917016E-12
1206                      5.32718715922609E-12
1208                      5.201377922922055E-12
1210                      4.547125250925671E-12
1212                      3.947288146585433E-12
1214                      4.518538005755877E-12
1216                      5.215189054113925E-12
1218                      6.847927440584194E-12
1220                      7.297945268991141E-12
1222                      7.616489817333938E-12